3
step=0 time_fs=0.00000000 units=angstrom/fs
 O       0.00000000       0.00000000       0.00000000
 H       0.00000000       0.00000000       0.00000000
 H       0.00000000       0.00000000       0.00000000
3
step=1 time_fs=0.25000000 units=angstrom/fs
 O       0.00000000       0.00000000       0.00000000
 H      -0.00022909       0.00000000       0.00000000
 H       0.00005744      -0.00022177       0.00000000
3
step=2 time_fs=0.50000000 units=angstrom/fs
 O       0.00000000       0.00000000       0.00000000
 H      -0.00045817       0.00000000       0.00000000
 H       0.00011487      -0.00044353       0.00000000
3
step=3 time_fs=0.75000000 units=angstrom/fs
 O       0.00000000       0.00000000       0.00000000
 H      -0.00068721       0.00000000       0.00000000
 H       0.00017230      -0.00066527       0.00000000
3
step=4 time_fs=1.00000000 units=angstrom/fs
 O       0.00000000       0.00000000       0.00000000
 H      -0.00091622       0.00000000       0.00000000
 H       0.00022971      -0.00088696       0.00000000
3
step=5 time_fs=1.25000000 units=angstrom/fs
 O       0.00000000       0.00000000       0.00000000
 H      -0.00114518       0.00000000       0.00000000
 H       0.00028712      -0.00110860       0.00000000
3
step=6 time_fs=1.50000000 units=angstrom/fs
 O       0.00000000       0.00000000       0.00000000
 H      -0.00137406       0.00000000       0.00000000
 H       0.00034450      -0.00133017       0.00000000
3
step=7 time_fs=1.75000000 units=angstrom/fs
 O       0.00000000       0.00000000       0.00000000
 H      -0.00160286       0.00000000       0.00000000
 H       0.00040187      -0.00155167       0.00000000
3
step=8 time_fs=2.00000000 units=angstrom/fs
 O       0.00000000       0.00000000       0.00000000
 H      -0.00183157       0.00000000       0.00000000
 H       0.00045921      -0.00177307       0.00000000
3
step=9 time_fs=2.25000000 units=angstrom/fs
 O       0.00000000       0.00000000       0.00000000
 H      -0.00206016       0.00000000       0.00000000
 H       0.00051652      -0.00199436       0.00000000
3
step=10 time_fs=2.50000000 units=angstrom/fs
 O       0.00000000       0.00000000       0.00000000
 H      -0.00228864       0.00000000       0.00000000
 H       0.00057380      -0.00221554       0.00000000
