3
step=0 time_fs=0.00000000 units=eV/angstrom
 O      -0.00000000      -0.00000000      -0.00000000
 H      -0.09572000      -0.00000000      -0.00000000
 H       0.02399872      -0.09266272      -0.00000000
3
step=1 time_fs=0.25000000 units=eV/angstrom
 O      -0.00000000      -0.00000000      -0.00000000
 H      -0.09571714      -0.00000000      -0.00000000
 H       0.02399800      -0.09265995      -0.00000000
3
step=2 time_fs=0.50000000 units=eV/angstrom
 O      -0.00000000      -0.00000000      -0.00000000
 H      -0.09570855      -0.00000000      -0.00000000
 H       0.02399585      -0.09265163      -0.00000000
3
step=3 time_fs=0.75000000 units=eV/angstrom
 O      -0.00000000      -0.00000000      -0.00000000
 H      -0.09569423      -0.00000000      -0.00000000
 H       0.02399226      -0.09263777      -0.00000000
3
step=4 time_fs=1.00000000 units=eV/angstrom
 O      -0.00000000      -0.00000000      -0.00000000
 H      -0.09567418      -0.00000000      -0.00000000
 H       0.02398723      -0.09261837      -0.00000000
3
step=5 time_fs=1.25000000 units=eV/angstrom
 O      -0.00000000      -0.00000000      -0.00000000
 H      -0.09564842      -0.00000000      -0.00000000
 H       0.02398077      -0.09259342      -0.00000000
3
step=6 time_fs=1.50000000 units=eV/angstrom
 O      -0.00000000      -0.00000000      -0.00000000
 H      -0.09561693      -0.00000000      -0.00000000
 H       0.02397288      -0.09256294      -0.00000000
3
step=7 time_fs=1.75000000 units=eV/angstrom
 O      -0.00000000      -0.00000000      -0.00000000
 H      -0.09557971      -0.00000000      -0.00000000
 H       0.02396355      -0.09252692      -0.00000000
3
step=8 time_fs=2.00000000 units=eV/angstrom
 O      -0.00000000      -0.00000000      -0.00000000
 H      -0.09553678      -0.00000000      -0.00000000
 H       0.02395278      -0.09248536      -0.00000000
3
step=9 time_fs=2.25000000 units=eV/angstrom
 O      -0.00000000      -0.00000000      -0.00000000
 H      -0.09548814      -0.00000000      -0.00000000
 H       0.02394059      -0.09243826      -0.00000000
3
step=10 time_fs=2.50000000 units=eV/angstrom
 O      -0.00000000      -0.00000000      -0.00000000
 H      -0.09543377      -0.00000000      -0.00000000
 H       0.02392696      -0.09238564      -0.00000000
